5760
Properties=species:S:1:pos:R:3 Atoms.=T Timestep:=T 0=T pbc="F F F"
Al      37.12183000      26.76301000      23.39635000
Al      24.60183000      27.78221000      12.83985000
Al      29.67873000      22.19621000      33.92705000
Al       8.87823000       0.11981000      26.36595000
Al      10.54603000       1.92994000      18.35645000
Al       2.75978000      27.94811000       5.07895000
Al      20.41593000      15.41661000      14.53295000
Al      35.15973000       5.73451000      29.19575000
Al      19.41643000      19.06801000      22.52585000
Al      29.54893000       6.25721000      37.34135000
Al       3.16418000      30.77021000       6.60995000
Al      38.30443000       8.48161000      16.49915000
O        7.56283000      25.02361000      21.98615000
O       39.08213000       4.74712000      28.34885000
O       36.18803000       0.17883000       1.64468000
O       27.48333000      19.19931000      32.38075000
O       33.07333000       0.26364000      20.68495000
O       26.42953000      20.30391000       7.33025000
O       16.03233000       0.10514000      40.74395000
O       19.76023000      25.85501000      37.34135000
O       32.68633000      23.14401000      17.27375000
O       24.47313000       3.07406000      35.15085000
O       11.98243000      21.55811000       3.08003000
O       31.57423000      11.03811000       2.75161000
O       23.31973000      20.02261000       2.91449000
O       21.39403000      23.37281000      37.50445000
O        1.78766000       3.02285000      36.38915000
O       14.64663000      24.97791000      36.97765000
O       10.00473000      27.08361000      16.89855000
O       32.06613000      28.57041000       8.05545000
Al      29.32193000      11.26071000      15.94285000
Al       8.30843000      31.01341000      21.33295000
Al      10.86803000      25.86011000      13.26765000
Al      42.57833000      18.89801000      29.69115000
Al      35.23493000      24.04521000      25.27835000
Al      17.86523000      21.80801000      14.81955000
Al       9.91823000      11.75761000      36.50715000
Al      21.80853000       6.02791000      23.10875000
Al      27.31063000      21.17461000      37.59865000
Al      28.93393000      10.22021000       6.99295000
Al      39.91653000      26.74411000       4.32913000
Al       5.40607000      14.35921000      24.91155000
O       12.40583000      15.80491000      13.41995000
O       14.93263000       3.23883000      40.49795000
O        9.53283000       2.37622000       7.38115000
O       43.24743000       1.10876000      35.80465000
O       42.03463000      18.02531000      22.54165000
O       21.91143000      20.98831000      30.93515000
O       23.70313000      23.61361000      42.06345000
O       26.97313000      21.20211000      11.73375000
O        2.99439000       7.01151000      17.64495000
O       16.22183000      18.16661000      30.81015000
O       37.81823000      14.84121000      30.55995000
O       28.65283000       2.88855000      34.56335000
O        8.86693000       2.85260000       2.93949000
O       35.00213000      13.82521000      20.29765000
O       26.89253000      13.12241000      12.91315000
O        4.78894000      15.30101000       3.59889000
O       37.98923000       0.42294000      19.24425000
O        1.71838000      16.21401000      36.53155000
Al      28.16203000      18.69691000      36.94275000
Al      35.19503000       5.41981000      34.98415000
Al      17.78763000      24.04531000      23.15515000
Al      35.97833000       6.14551000      16.76855000
Al       3.81503000      29.18381000       0.24688000
Al      12.02363000      32.56701000       6.88095000
Al       4.14544000      23.60201000      29.22385000
Al      28.10733000      28.09481000      28.53545000
Al      28.67183000      29.93011000       9.55535000
Al       1.94774000      16.19211000      28.22365000
Al      39.54833000      29.57261000      36.51595000
Al      25.07593000       8.18001000      40.13765000
O        5.39384000      10.16941000      39.88385000
O        8.33873000       8.48421000      41.51725000
O       16.05463000      28.29501000      40.09865000
O       24.25953000      16.74491000      41.02415000
O        9.25323000       6.53071000      13.50215000
O       18.77743000      10.36831000       7.38675000
O       36.19813000       8.24121000       4.97017000
O        3.93429000       5.88741000      12.88525000
O       27.68133000      30.62411000      30.60975000
O       32.86683000      29.48181000      16.56885000
O       10.76563000      10.57981000      25.73425000
O        3.30334000      25.36721000      16.03845000
O        3.46447000      14.92301000      24.33595000
O        3.43366000       8.50041000      20.20065000
O       32.69063000       4.71836000       5.04087000
O       10.11773000      31.23261000      34.59235000
O       13.71283000      17.46701000      36.09495000
O       23.24293000      24.59571000      20.89265000
Al      42.17133000       4.28147000      16.19335000
Al      19.86573000      21.54961000      26.74655000
Al       6.13325000       6.40941000      27.24195000
Al      40.22283000      20.13741000       4.94261000
Al      37.87533000       9.37851000      10.23415000
Al      14.78803000      27.35371000      10.74195000
Al      39.11883000       1.16721000      36.41585000
Al      10.12243000       8.79701000       2.82452000
Al      31.91163000      19.96191000      41.47265000
Al      29.55463000      31.87701000       2.14940000
Al      17.90583000      29.15691000      39.53025000
Al      21.10363000      26.32501000      40.03065000
O       31.17863000       6.50941000       1.16998000
O       18.19003000       9.49191000      27.64475000
O       32.38663000      17.25761000      11.52535000
O       29.34843000      14.42971000       4.04550000
O       39.64713000       4.73469000      30.80115000
O       30.64033000      20.54021000       9.23335000
O       21.76733000      20.67071000      35.51725000
O        4.02896000      22.40401000      12.37575000
O       22.79783000      15.38781000      27.20385000
O        6.01200000      25.76631000      41.95045000
O       20.32953000       1.55023000      29.67885000
O       30.16813000      26.01151000       3.52783000
O       27.45383000      15.63261000      35.57635000
O       20.52363000      24.26671000       8.72625000
O       18.54483000       2.13813000      17.02605000
O       33.22473000      21.78141000      22.68655000
O       22.51843000      14.62801000      34.09715000
O       27.84623000      31.27581000      17.18525000
Al       8.79513000      26.19041000      25.04505000
Al      40.25703000       6.72641000      37.34355000
Al      36.12323000      19.38481000      25.04795000
Al      15.09003000       3.32225000      26.00065000
Al      42.17113000       7.39951000      22.83005000
Al      29.80363000      28.87661000      12.16405000
Al       8.86393000       1.19935000      21.16745000
Al      40.79663000      10.93811000      38.77285000
Al      27.49973000      25.26161000       6.24555000
Al      10.71893000      23.79551000      25.55455000
Al      36.25653000      26.84221000       0.16315000
Al      11.17723000      29.82751000       5.77335000
O       42.72073000      17.42941000      19.55825000
O       10.67993000      25.21481000      14.84525000
O       15.74843000       5.23901000      19.83375000
O       42.63723000      20.47181000      11.45805000
O       41.65853000       8.23821000       5.79425000
O        2.64147000      26.65411000      38.57725000
O        3.08553000      16.97401000      29.44975000
O       42.28933000      11.36751000       2.93684000
O       21.59223000      21.40421000      27.12355000
O       16.14673000      22.24731000      15.41355000
O       21.63023000      27.56511000      35.41695000
O       21.07033000      15.82871000      20.03085000
O       20.47783000      31.79921000      34.91475000
O       28.38073000       1.67955000      38.97685000
O       11.92333000      12.15961000      33.36055000
O        5.13253000      14.70161000      16.22255000
O       23.00183000      19.74681000      10.22135000
O       12.28203000       6.16711000       1.21333000
Al      30.84193000      12.82371000      20.83075000
Al      38.81493000      31.59511000      19.85775000
Al      42.44993000      26.57251000      14.50095000
Al       6.70267000      30.03091000      25.72825000
Al      26.34273000      17.16791000      17.90055000
Al      18.32613000       3.82965000      29.38965000
Al      27.13493000      31.52161000       4.36861000
Al      37.34243000      11.15291000      41.70365000
Al      30.64663000      24.19121000      28.78735000
Al      17.45553000      11.98071000      35.27785000
Al       2.14308000      11.00611000      39.25665000
Al      10.53273000      11.95571000      10.84555000
O       41.52973000      11.32751000       0.46994000
O        1.79527000       5.74941000      33.42855000
O        2.13395000      32.51661000       2.86384000
O       34.79003000       6.65611000       3.05178000
O       12.79723000      21.46311000      19.52375000
O        9.94683000      19.23201000       8.01915000
O       15.05983000       7.36661000       6.40435000
O        7.04313000      32.13961000      40.83255000
O       19.16243000      24.60821000      24.17995000
O        8.82533000      10.69971000      40.02745000
O       32.11683000      32.56831000      36.86835000
O       31.00723000       8.54871000      35.51625000
O       33.46533000      12.62331000       5.12080000
O        6.96333000      27.92811000      40.19695000
O        9.70523000       5.37351000      29.86415000
O       36.51533000      30.95981000      17.71585000
O       16.56883000       0.61304000       5.21215000
O       11.84373000      17.53071000       8.98055000
Al      36.68253000       3.10665000      35.83615000
Al      24.26473000      28.86701000       9.01195000
Al      16.33813000      22.75731000      28.48565000
Al      13.14293000      24.66631000      23.96495000
Al      38.11013000      13.14881000      10.43385000
Al      14.48883000      22.32211000      22.65525000
Al      23.85393000      17.46081000      33.83425000
Al       6.28244000      10.16451000      30.61275000
Al      34.29933000      20.00711000      36.56815000
Al      18.48783000      28.50871000      24.27015000
Al      33.95133000      31.93591000      14.89745000
Al      42.27913000      24.38491000      39.86615000
O        8.59473000      12.62741000      13.18315000
O       41.48373000      23.84191000       3.23301000
O       20.14473000       7.87461000       2.63566000
O        9.85543000       1.23733000      12.64775000
O        8.32013000      13.35111000      22.48775000
O        2.22663000      32.12611000       0.39433000
O       28.87163000       6.22621000      15.51845000
O       20.80363000       9.17911000      26.34155000
O       40.57763000      21.25591000      13.18115000
O        0.80254000      23.57721000      36.83905000
O       20.18613000      15.47941000      12.75175000
O       17.95003000      32.12891000      34.24315000
O       17.22563000      25.32111000      41.31635000
O        8.58853000       8.68251000      32.88905000
O       40.05783000      23.55821000       7.17585000
O       34.01223000       5.32071000      11.11645000
O       36.77803000      26.46051000       9.67235000
O        7.60183000      23.24791000      24.50595000
Al      12.12063000      24.41091000       8.97065000
Al      17.05563000      30.79911000      33.53025000
Al      18.98743000      14.20721000      12.20245000
Al      38.70663000      16.11001000      11.55105000
Al      24.30073000      23.03441000       6.02455000
Al      12.40553000       4.67832000       3.63286000
Al       6.68721000      14.98651000      21.99735000
Al      41.29213000      21.25081000      39.54055000
Al      17.27023000      10.91741000      27.06395000
Al      40.71703000      31.14061000      17.17925000
Al      12.61523000      32.81111000      32.73825000
Al       7.23093000       6.66751000      19.34485000
O       41.92423000      14.04191000      22.36145000
O       11.62823000      31.42951000      32.12395000
O        6.85823000      13.30341000      25.08035000
O       32.47333000      18.18801000      33.09445000
O       24.03773000      13.59661000      16.46525000
O       37.68643000      18.97021000      24.23205000
O       22.87883000      11.89361000      11.71055000
O       18.89953000      17.54631000       3.93693000
O       22.26213000       4.93801000       6.45085000
O        2.72043000      16.05271000      26.69525000
O       39.20823000       1.44696000       1.73241000
O       14.19193000      31.98341000      11.44165000
O       19.80973000       6.37981000      26.72545000
O       40.58833000      22.40461000      31.22215000
O       42.01643000      15.99591000      24.36965000
O        2.15824000       5.35231000      30.49265000
O        4.46720000       1.88023000      21.26865000
O        3.63670000      15.62971000      14.19835000
Al      37.48843000       9.01981000      19.27535000
Al      36.83603000      17.97881000      16.74635000
Al      41.45363000       0.11231000      15.32165000
Al      41.90603000      17.58861000       6.30135000
Al      27.26963000      14.43801000      36.95175000
Al       0.89419000      28.37671000      15.40985000
Al       4.19502000      20.30091000      37.73515000
Al      18.89193000      28.43961000      34.18885000
Al      24.74993000      15.14331000      15.92035000
Al      43.34113000      24.12661000       3.11945000
Al      37.54563000      14.33261000       4.52107000
Al       4.55787000      13.61441000      34.55535000
O        4.56661000      18.84981000      36.75575000
O       30.34843000       8.83931000       1.29435000
O       40.39023000      11.82741000       4.63258000
O       18.79263000      32.18241000      21.83825000
O        7.13713000      16.13561000      39.32835000
O       27.41713000      22.67141000       9.23515000
O       32.47383000       6.45501000      27.76145000
O       37.03773000      19.52341000      28.36395000
O       28.09853000      28.79111000      42.28735000
O        1.99230000       9.70391000      18.06635000
O       30.95823000      19.86221000      11.97275000
O       13.51593000       7.56271000      15.19805000
O       18.03613000       8.50581000      35.38095000
O       18.98493000       2.27368000      23.56135000
O       39.46173000      26.60741000      18.98505000
O        4.92192000      30.66731000       6.83195000
O       34.69873000       2.77923000      20.17965000
O       28.25313000       0.68884000      36.28915000
Al       0.75650000      31.08951000      16.77835000
Al      16.06033000      20.87001000      16.49915000
Al      38.75013000       8.82181000       3.28630000
Al      26.41903000      17.05161000      35.50105000
Al      21.62073000      10.66741000      22.49185000
Al      11.25373000      17.94321000      21.97955000
Al      31.13343000      18.16581000      34.80395000
Al      12.28783000      24.72561000      15.43645000
Al      36.24593000      30.57551000      26.29945000
Al      38.37973000      25.30611000      40.40115000
Al      36.47963000      30.19431000      16.20095000
Al      42.96103000      21.43871000      28.14825000
O       28.71283000       6.33371000      12.65865000
O       19.64653000       4.36901000      21.93305000
O       16.68483000      16.51111000      19.90255000
O       14.86503000       2.03352000       6.58935000
O       13.57183000      10.07421000       9.12275000
O       24.55023000      27.78331000       7.62665000
O       30.43883000      17.09141000      28.58465000
O       24.65903000      15.04721000      18.99435000
O        7.49203000      12.27461000       5.71950000
O        1.73625000       8.71361000      42.15175000
O       30.17093000      12.96371000       9.75935000
O       35.17653000       4.33218000       4.26402000
O       18.04963000      20.08351000      30.32345000
O        6.05583000       0.33993000       5.93855000
O       17.69703000      18.79451000       7.71585000
O       14.02683000       7.58131000      37.74995000
O       42.36463000      19.47711000      14.94985000
O        1.94605000       5.71441000      15.27705000
Al      32.67273000       1.08880000       7.77485000
Al      33.05113000      26.64131000      39.35035000
Al      13.68713000      13.24461000      41.97675000
Al      25.28473000      28.69061000      20.79955000
Al      26.10023000      20.65221000      13.18395000
Al      19.29083000       8.60241000      30.38045000
Al      34.97413000      27.92181000       4.98914000
Al       0.58186000      27.63321000       6.71735000
Al      32.57703000      16.71331000       3.04171000
Al      27.11753000      30.52661000      25.94265000
Al      17.68693000      10.85131000      39.14235000
Al      36.11853000      10.63451000      21.39855000
O       27.03143000       4.18953000       8.69735000
O       15.66163000       9.32571000      14.00555000
O       24.30653000      15.07541000      38.79745000
O       13.95563000      21.59591000      10.07745000
O       21.09463000      29.40151000      41.33235000
O        3.25476000      12.04011000       2.53930000
O       43.29043000      27.96791000      24.12605000
O       18.05333000      16.25441000      35.60405000
O       23.51983000      28.24241000      37.08155000
O       21.13873000      32.76671000      38.97465000
O       37.87173000       2.50265000      24.66265000
O       26.20493000      26.50441000      19.38615000
O       10.48183000      15.78201000      22.97035000
O       36.85973000      14.41521000      14.05875000
O       24.91573000       8.34891000      24.13005000
O        3.42231000      32.76671000      14.38605000
O        5.85521000      29.89071000      41.45865000
O       19.91803000       8.05931000       9.25445000
Al      36.65153000      13.41311000      28.66895000
Al      10.24023000       4.69869000      11.12975000
Al      42.27863000      10.50351000      26.75465000
Al      38.25763000       3.61720000      21.09505000
Al       5.22659000      25.11711000      40.62355000
Al      40.78243000       0.52081000      24.83305000
Al       6.41132000       3.46447000       0.77036000
Al      25.74163000      12.90751000      34.03275000
Al      11.29553000       2.45752000      22.68765000
Al       6.82063000      19.19071000      10.51815000
Al      29.05803000       3.53895000       3.71912000
Al      15.42653000       0.42909000       6.57215000
O       27.11403000      26.03961000       4.73995000
O       42.32753000      17.04141000       7.97845000
O        5.00246000      30.77071000      10.06595000
O       26.61083000      12.96381000       7.86895000
O       31.10223000       8.30871000       3.78784000
O       41.47523000       2.78574000      40.16435000
O       24.26903000      26.32571000      35.23325000
O       21.77783000       7.05461000      36.29445000
O       32.16463000      29.79221000      41.86065000
O       26.74773000      30.08591000       5.28360000
O       21.11123000      31.80131000      20.79425000
O       16.87023000      26.05501000      25.65085000
O       25.19273000       2.95683000      30.46945000
O       21.15023000       0.20819000      23.43515000
O       26.94283000      24.73711000      28.04395000
O       19.49913000      12.69311000       4.46765000
O       43.03123000      10.64841000      34.65195000
O        5.93231000      15.85441000      25.68125000
Al      43.35183000      14.43151000      21.28235000
Al      15.70843000      29.85401000       3.64508000
Al      31.79613000      32.52341000      19.56565000
Al      16.44073000       4.11954000       6.05665000
Al      17.73333000      25.79891000      31.58945000
Al      28.85643000      23.63501000      16.94075000
Al       8.66043000       8.98521000      28.22235000
Al      11.44673000      10.66151000      33.95185000
Al       1.74966000      15.92771000      18.23645000
Al      18.11403000      22.00481000      37.67945000
Al      32.76993000      19.33131000      26.71625000
Al      28.14083000      22.41251000      12.24155000
O       14.94193000      21.23141000       4.03926000
O       29.85063000      30.18551000      32.14045000
O       36.93693000      30.39201000      27.83145000
O        5.14384000      26.15481000      39.26425000
O       24.26393000       6.96271000      13.83865000
O       34.41653000      20.82471000       2.40282000
O       25.23503000      15.08941000      14.29415000
O       40.60033000       3.83125000       0.59158000
O        8.52473000      29.21241000      34.07395000
O       17.75943000       1.88521000      41.80575000
O       38.83673000      32.08261000      31.25355000
O       39.02043000      19.75271000      26.58665000
O       20.09923000      19.97971000      40.92465000
O       11.31633000       6.06421000      11.12845000
O       21.66603000      17.14951000      25.15855000
O       31.22083000      22.24951000      12.73145000
O        0.38290000      20.99721000      25.62625000
O       39.39883000      19.22881000      31.55965000
Al       5.44042000       1.23741000      32.16285000
Al      30.55773000      22.29871000      18.95675000
Al      31.96643000      30.88501000      16.94135000
Al      13.81813000      29.00011000      26.63835000
Al      33.29153000       3.94111000      19.79845000
Al      31.81143000       9.09071000      10.48235000
Al      41.76963000      28.33831000      17.20855000
Al      36.69213000      17.34021000       1.94823000
Al      12.15333000      15.87441000      23.56955000
Al      20.01453000      24.22241000      36.74435000
Al      33.40503000      22.62211000      30.66025000
Al      37.26973000      20.45321000      13.02275000
O       41.26413000      32.00961000       9.12005000
O        6.51832000      25.89681000       5.28549000
O       26.11663000      21.75201000      19.15695000
O       31.12913000      12.46221000      37.48915000
O       38.93363000       8.45531000       4.95678000
O       10.25033000       5.41401000      32.76995000
O       34.66343000      26.02521000      39.27575000
O       18.72073000      25.33351000      28.54985000
O       43.39463000      19.10881000       6.59375000
O       39.36813000       1.97463000      30.26365000
O       11.63323000       3.94972000      23.47045000
O       19.53823000      15.41251000      39.67565000
O       30.85743000       6.66241000      40.74015000
O       18.61103000      31.66021000      36.87805000
O       10.01033000      22.21701000      31.66705000
O       14.02203000       5.12111000      36.77075000
O       40.38813000      19.00341000       3.52376000
O       34.26893000      18.57201000      30.74415000
Al       0.33421000      29.13661000      39.96615000
Al      32.23123000      18.18431000      39.12575000
Al       4.62878000       2.40039000       2.97263000
Al      14.44953000      20.47041000       2.46577000
Al      18.78433000      11.81231000      24.01805000
Al       0.58695000      19.28261000      15.87925000
Al       5.25133000      10.67551000      38.21855000
Al      14.82753000      14.21431000       8.09885000
Al      10.92423000      16.42031000       3.85043000
Al      37.75233000      13.09281000      39.61895000
Al      29.59303000      22.15531000      38.81015000
Al      11.24763000      22.42561000      16.41735000
O       18.44713000      23.50691000      21.59035000
O       28.70743000      22.25761000      13.88205000
O       14.64733000       2.34601000      37.09765000
O       33.08073000      21.04321000      30.15355000
O       18.84363000      27.30961000       2.93396000
O        6.52054000      14.74021000      41.36145000
O       41.56643000       9.00761000      19.84495000
O        6.44760000       5.97901000      13.80565000
O       25.77343000      21.85891000      38.14665000
O       33.07773000       1.59318000      23.30285000
O       16.87233000      23.69541000      19.23485000
O       23.54473000       9.25751000      26.37435000
O       39.15483000      20.81241000       7.19035000
O        9.32163000       4.38088000      24.88505000
O       43.36763000      26.14621000      12.97145000
O       35.37763000      28.09441000      41.49765000
O       30.34883000      19.23511000       7.20985000
O       13.82343000      32.28061000       6.24895000
Al       0.85072000       9.56061000      35.20685000
Al      23.21543000      26.31481000      27.25385000
Al      15.37243000      13.07531000       3.32537000
Al      12.42613000       4.06178000      13.10225000
Al      27.55603000      30.37121000      20.85605000
Al      28.15963000      18.69971000      13.98745000
Al      20.70213000      18.88291000      14.19735000
Al      37.96723000      29.22481000       1.34241000
Al      10.44833000      13.24291000      39.32125000
Al       2.55442000      19.24041000      21.98085000
Al      32.49823000      23.73221000      26.27845000
Al      25.54413000      11.77521000      29.21295000
O        4.13729000      17.76631000      25.12695000
O        5.24194000       6.09241000      30.33505000
O       28.40193000       5.01901000      30.13205000
O       10.68473000      13.53461000      21.39395000
O       14.65273000      18.62451000      23.61955000
O       15.78723000      32.00761000      21.54285000
O       29.82473000       3.03188000      36.82235000
O       42.88053000      32.83101000      12.11145000
O       36.77513000       1.38470000      12.41125000
O       11.10653000      26.60891000      31.32765000
O        3.37838000       4.15552000      22.29455000
O       25.11853000      31.50731000      33.81265000
O       36.48723000      28.42121000      20.52175000
O       36.71803000      12.76591000       9.45785000
O       11.44663000      31.99761000      11.06135000
O       11.21143000       2.21533000      28.60225000
O       32.43353000      16.93851000      23.81875000
O       18.05493000      12.52911000      27.44575000
Al      39.81663000       9.74041000      36.15775000
Al      37.84323000      16.22611000      29.01095000
Al      37.72713000       5.65501000      23.05515000
Al      42.86933000       4.60392000      23.90655000
Al       0.99958000      14.96521000      13.14355000
Al      10.64033000      11.71041000       3.54191000
Al      11.74993000      30.22781000      19.36725000
Al      37.45533000       8.82801000      13.39095000
Al      10.22103000      30.54661000      32.90725000
Al      42.64423000      29.88041000       5.05336000
Al       8.92543000      17.57901000      40.19175000
Al       2.42984000      18.46261000      30.15085000
O       40.75663000      11.19591000      26.99765000
O       26.43703000      16.84011000       5.54677000
O       39.70703000      21.06661000      35.72285000
O       41.50913000      28.07811000      21.47265000
O       24.56443000      15.46501000      21.65845000
O       18.15493000      32.51381000       1.18199000
O       13.37943000      19.28541000      18.18035000
O       27.86743000      11.27021000       6.12145000
O        2.67315000       6.94501000      22.41855000
O       33.93043000      19.47271000      10.28665000
O       31.88783000      31.09881000      25.26945000
O       41.37083000      28.84171000      28.82695000
O       32.21873000      32.36111000      42.45345000
O       40.69723000      29.51841000      16.35395000
O        5.13436000       6.12281000      22.83225000
O       35.99143000       8.62451000      32.57925000
O       42.22553000      18.12831000       1.90963000
O       24.08503000      21.74781000      35.47285000
Al      27.58313000       4.17539000      10.33065000
Al       7.85213000      28.56981000      23.55315000
Al       3.81884000      13.93851000      22.90385000
Al      21.78793000      20.55071000      16.54615000
Al      19.67543000      27.36341000      16.61005000
Al      33.63653000      28.76331000       7.49765000
Al      21.06603000      10.43971000      16.98075000
Al      39.16353000      17.70671000       3.69088000
Al      34.14583000      12.57921000      16.38615000
Al      28.16443000       5.09061000      21.67745000
Al      34.80823000      15.92521000      15.42345000
Al      39.30733000       0.11993000      27.56085000
O       20.19803000      19.66051000       9.00515000
O       30.28183000       1.29083000      41.34625000
O       43.07843000      27.54091000      39.28375000
O       42.81763000      11.28521000       5.92235000
O       34.81033000      30.69661000       0.69325000
O       20.88913000      24.67891000      29.34375000
O        5.18340000       3.74814000      42.03355000
O        7.87413000      19.89451000      17.55875000
O       10.41173000      26.43721000      34.41875000
O       27.65073000       3.23576000       1.60157000
O        8.00323000      26.34551000      35.25315000
O       26.83993000      12.86311000      29.62075000
O       12.99483000      30.89551000      35.02795000
O        1.14769000       3.58774000       6.50515000
O       34.43873000       4.38771000      41.90815000
O       40.08013000       6.50331000      14.96735000
O       23.79523000       4.18563000      40.11375000
O       28.25093000      27.50601000      24.03395000
Al      26.94193000       2.43648000      26.85645000
Al      30.42163000      20.55971000      16.42945000
Al      14.15553000      15.30581000       1.94469000
Al       8.58903000      19.68391000      35.30025000